ITEM: TIMESTEP
1000
ITEM: NUMBER OF ATOMS
3425
ITEM: BOX BOUNDS pp pp pp
-3.0756499999999999e+01 2.9243500000000001e+01
-3.0018000000000001e+01 2.9981999999999999e+01
-3.0276000000000000e+01 2.9724000000000000e+01
ITEM: ATOMS id type xs ys zs
1 4 0.453201 0.295305 0.389963
2 5 0.433558 0.294382 0.438896
3 5 0.399678 0.337383 0.404512
4 4 0.427579 0.314937 0.507255
5 4 0.374092 0.29386 0.455034
6 5 0.45358 0.293927 0.561307
7 5 0.363948 0.346408 0.518129
8 4 0.430484 0.345005 0.633266
9 4 0.412443 0.339 0.558631
10 5 0.412247 0.396841 0.347305
11 4 0.386071 0.399665 0.401531
12 5 0.358964 0.379889 0.452656
13 5 0.324618 0.407719 0.396434
14 4 0.361505 0.404317 0.545976
15 4 0.298488 0.422882 0.485476
16 5 0.383589 0.381578 0.600797
17 5 0.318187 0.377761 0.504179
18 4 0.36998 0.353038 0.64839
19 4 0.337126 0.359368 0.574002
20 5 0.353079 0.410155 0.650746
21 5 0.371631 0.453825 0.325992
22 4 0.369375 0.45743 0.386672
23 5 0.350028 0.438409 0.440134
24 5 0.316782 0.480026 0.410218
25 4 0.343346 0.436312 0.500519
26 4 0.307664 0.481239 0.480069
27 5 0.336107 0.430186 0.595379
28 5 0.297177 0.46218 0.534644
29 4 0.33009 0.484952 0.6153
30 4 0.310882 0.508646 0.5655
31 4 0.315391 0.532596 0.375091
32 5 0.288164 0.527495 0.45009
33 4 0.335504 0.508261 0.512137
34 5 0.299066 0.562929 0.566914
35 5 0.286279 0.550951 0.510418
36 4 0.345943 0.52794 0.645037
37 4 0.502964 0.287253 0.380296
38 5 0.495464 0.28381 0.453223
39 5 0.478051 0.332821 0.408817
40 4 0.519843 0.264815 0.497392
41 4 0.470908 0.338415 0.467449
42 5 0.508923 0.25939 0.560382
43 5 0.496378 0.309431 0.518279
44 4 0.495201 0.32513 0.633179
45 4 0.465816 0.351736 0.585099
46 5 0.475179 0.353135 0.6934
47 5 0.458868 0.349289 0.346332
48 4 0.472983 0.419273 0.357475
49 4 0.447605 0.399994 0.303552
50 5 0.463778 0.401625 0.470669
51 5 0.452728 0.390734 0.405602
52 4 0.460088 0.360693 0.524567
53 4 0.412235 0.428812 0.446384
54 5 0.465711 0.416926 0.591941
55 5 0.408393 0.380269 0.492953
56 4 0.477987 0.382966 0.640467
57 4 0.420811 0.396592 0.555604
58 5 0.419413 0.40227 0.65367
59 4 0.486663 0.418793 0.702576
60 5 0.436282 0.454575 0.319173
61 4 0.427225 0.444642 0.382655
62 4 0.400094 0.504406 0.308536
63 5 0.437652 0.473569 0.478215
64 5 0.40246 0.491482 0.425495
65 4 0.464467 0.424029 0.52738
66 4 0.376808 0.477077 0.478069
67 5 0.401856 0.443987 0.606364
68 5 0.403224 0.438938 0.518981
69 4 0.435403 0.464665 0.663731
70 4 0.355698 0.467631 0.550996
71 5 0.429674 0.453183 0.719445
72 5 0.375058 0.470708 0.65892
73 4 0.409334 0.502323 0.700668
74 5 0.371921 0.539484 0.335951
75 4 0.417111 0.500336 0.364063
76 5 0.382573 0.537755 0.473516
77 5 0.357608 0.52586 0.40068
78 4 0.400695 0.499739 0.524993
79 4 0.337465 0.534336 0.454374
80 5 0.418392 0.519819 0.579095
81 5 0.349735 0.560097 0.540616
82 4 0.406331 0.524002 0.641252
83 4 0.36485 0.519705 0.583775
84 5 0.377736 0.554766 0.691701
85 4 0.361989 0.583682 0.371149
86 5 0.367094 0.584716 0.429102
87 4 0.361641 0.596092 0.495729
88 4 0.315455 0.602419 0.462115
89 5 0.385523 0.574825 0.600746
90 5 0.314478 0.607661 0.522677
91 4 0.351573 0.591119 0.653054
92 4 0.327517 0.613309 0.579888
93 4 0.570201 0.29099 0.369419
94 5 0.592375 0.308173 0.441143
95 5 0.546056 0.335064 0.403319
96 4 0.601787 0.295802 0.502095
97 4 0.53075 0.32248 0.465679
98 5 0.591607 0.300625 0.568168
99 5 0.557527 0.332259 0.518554
100 4 0.578357 0.329153 0.625716
101 4 0.522776 0.320552 0.574385
102 5 0.539349 0.366015 0.674437
103 5 0.559999 0.359624 0.345492
104 4 0.50669 0.373879 0.373774
105 4 0.504903 0.378913 0.299499
106 5 0.568531 0.362923 0.46172
107 5 0.510485 0.375988 0.435883
108 4 0.515143 0.371498 0.496587
109 4 0.545867 0.419039 0.465809
110 5 0.57359 0.359886 0.573301
111 5 0.511104 0.380383 0.557147
112 4 0.525874 0.366109 0.612422
113 4 0.557955 0.41707 0.578368
114 5 0.545975 0.429627 0.677547
115 4 0.533999 0.388219 0.72526
116 5 0.528749 0.426351 0.341771
117 5 0.485764 0.472985 0.258183
118 4 0.508784 0.433696 0.406129
119 4 0.497475 0.480464 0.311703
120 5 0.498032 0.454504 0.464003
121 5 0.484432 0.473366 0.366455
122 4 0.520904 0.429084 0.51663
123 4 0.460714 0.47765 0.420405
124 5 0.513415 0.455036 0.570465
125 5 0.482494 0.48552 0.520521
126 4 0.519269 0.424419 0.62581
127 4 0.440845 0.46578 0.561976
128 5 0.532413 0.464392 0.72928
129 5 0.486664 0.478207 0.63699
130 4 0.483512 0.478764 0.701402
131 5 0.455581 0.53559 0.319234
132 4 0.465808 0.528329 0.383754
133 4 0.40248 0.544786 0.272019
134 5 0.487386 0.515649 0.463896
135 5 0.409282 0.561005 0.38466
136 4 0.438574 0.532276 0.494875
137 4 0.439453 0.541986 0.436264
138 5 0.484851 0.507455 0.580901
139 5 0.403241 0.560089 0.531784
140 4 0.456625 0.540217 0.621642
141 4 0.459009 0.548951 0.54568
142 5 0.482096 0.524036 0.739979
143 5 0.454749 0.539185 0.683624
144 4 0.4264 0.556888 0.732529
145 5 0.41273 0.598519 0.330598
146 4 0.465228 0.585867 0.364988
147 5 0.419068 0.586302 0.472731
148 5 0.413022 0.619874 0.403192
149 4 0.442974 0.602955 0.526894
150 4 0.396138 0.641122 0.460621
151 5 0.450573 0.594718 0.589572
152 5 0.384576 0.616522 0.551022
153 4 0.432815 0.585711 0.65219
154 4 0.40473 0.621201 0.611727
155 5 0.389933 0.618577 0.685265
156 4 0.387585 0.647542 0.358349
157 5 0.376611 0.695812 0.441603
158 4 0.417527 0.661701 0.519678
159 5 0.364037 0.659151 0.58501
160 5 0.360295 0.656667 0.507187
161 4 0.358416 0.657172 0.644767
162 5 0.636022 0.329955 0.399048
163 4 0.670612 0.345925 0.501161
164 4 0.647047 0.294723 0.466025
165 5 0.620899 0.347062 0.527265
166 4 0.66851 0.318351 0.555647
167 5 0.618615 0.398711 0.343812
168 4 0.629835 0.391047 0.40376
169 4 0.569683 0.412098 0.301154
170 5 0.630516 0.356717 0.455631
171 5 0.558545 0.401858 0.398105
172 4 0.628015 0.401665 0.498745
173 4 0.600153 0.416191 0.447212
174 5 0.632893 0.355448 0.595771
175 5 0.571407 0.395529 0.519838
176 4 0.623671 0.361389 0.657422
177 4 0.619377 0.402172 0.559295
178 5 0.577208 0.389979 0.626737
179 4 0.595533 0.412744 0.678081
180 5 0.603221 0.457202 0.333358
181 5 0.540622 0.489451 0.251505
182 4 0.603966 0.445945 0.394458
183 4 0.553638 0.479222 0.313207
184 5 0.565903 0.470438 0.437813
185 5 0.55124 0.473675 0.372986
186 4 0.597557 0.45497 0.490182
187 4 0.515351 0.498978 0.413601
188 5 0.607911 0.445944 0.602176
189 5 0.543715 0.482727 0.497191
190 4 0.589891 0.465236 0.656695
191 4 0.575469 0.462404 0.545453
192 5 0.588142 0.463696 0.723312
193 5 0.549722 0.477698 0.617994
194 4 0.541029 0.490631 0.676921
195 5 0.584936 0.52556 0.349137
196 5 0.508649 0.544335 0.250854
197 4 0.566068 0.536352 0.405689
198 4 0.531957 0.533419 0.304572
199 5 0.545894 0.534666 0.462454
200 5 0.52219 0.538593 0.363881
201 4 0.578013 0.530132 0.518623
202 4 0.504124 0.557936 0.422663
203 5 0.545749 0.518704 0.570864
204 5 0.516548 0.538093 0.517132
205 4 0.582416 0.531061 0.628014
206 4 0.507906 0.570767 0.570501
207 5 0.54893 0.517542 0.740318
208 5 0.518987 0.538484 0.627759
209 4 0.513621 0.537345 0.694908
210 5 0.508464 0.5874 0.315405
211 4 0.519728 0.596193 0.38421
212 4 0.456442 0.58697 0.302713
213 5 0.481802 0.578153 0.482548
214 5 0.463603 0.60414 0.426349
215 4 0.555229 0.584072 0.528059
216 4 0.452695 0.636385 0.480057
217 5 0.511335 0.624026 0.603015
218 5 0.507096 0.621579 0.523479
219 4 0.496319 0.591133 0.662829
220 4 0.474663 0.643369 0.562994
221 5 0.510924 0.604358 0.726166
222 5 0.466482 0.638852 0.645493
223 4 0.457153 0.595618 0.702041
224 5 0.480685 0.640769 0.322138
225 4 0.480432 0.646172 0.383902
226 5 0.48221 0.670878 0.440317
227 5 0.428701 0.682169 0.405317
228 4 0.484629 0.680577 0.502787
229 4 0.431233 0.689668 0.468905
230 5 0.486447 0.688789 0.603628
231 5 0.445411 0.723811 0.518464
232 4 0.415581 0.672696 0.636862
233 4 0.428302 0.675883 0.573799
234 5 0.704079 0.387352 0.480792
235 5 0.694279 0.39765 0.405586
236 4 0.731968 0.398937 0.532496
237 4 0.659213 0.416781 0.45032
238 5 0.709871 0.390802 0.58945
239 5 0.675729 0.402281 0.537273
240 4 0.660843 0.415583 0.602279
241 5 0.645854 0.423681 0.656773
242 5 0.660644 0.472839 0.34321
243 4 0.663747 0.452598 0.397106
244 4 0.602448 0.501711 0.295719
245 5 0.697777 0.468108 0.451538
246 5 0.620223 0.511345 0.392964
247 4 0.657526 0.452545 0.496951
248 4 0.631318 0.468962 0.443336
249 5 0.699981 0.464407 0.592796
250 5 0.63223 0.502528 0.519812
251 4 0.672324 0.475019 0.654239
252 4 0.651944 0.454894 0.55801
253 5 0.63138 0.49953 0.629954
254 4 0.638675 0.472284 0.693204
255 5 0.64905 0.549154 0.330114
256 4 0.614553 0.569578 0.377574
257 4 0.590449 0.55364 0.301089
258 5 0.659804 0.52158 0.462042
259 5 0.619692 0.564882 0.43404
260 4 0.623813 0.562819 0.494635
261 4 0.600449 0.512143 0.466922
262 5 0.65799 0.515501 0.565803
263 5 0.61567 0.563021 0.555758
264 4 0.636652 0.558549 0.610676
265 4 0.602369 0.504089 0.576581
266 5 0.592866 0.512659 0.686442
267 4 0.591199 0.566678 0.717404
268 5 0.614566 0.598325 0.331999
269 4 0.565725 0.588194 0.341845
270 4 0.563259 0.612461 0.270138
271 5 0.573547 0.591389 0.469031
272 5 0.580317 0.607161 0.402893
273 4 0.606581 0.615484 0.52219
274 4 0.518863 0.616806 0.451581
275 5 0.561975 0.580611 0.590651
276 5 0.558814 0.648 0.494729
277 4 0.595928 0.590921 0.637345
278 4 0.558209 0.633873 0.558224
279 5 0.550374 0.630634 0.658169
280 4 0.547983 0.574161 0.666889
281 5 0.539353 0.639548 0.348617
282 4 0.534725 0.656292 0.409491
283 5 0.536923 0.701664 0.459993
284 5 0.501096 0.709475 0.391939
285 4 0.521328 0.68053 0.551026
286 4 0.476912 0.730147 0.46229
287 5 0.551175 0.673008 0.605483
288 5 0.516857 0.732482 0.51323
289 4 0.571834 0.706645 0.650434
290 4 0.558807 0.716308 0.580622
291 5 0.511983 0.685504 0.659614
292 5 0.719428 0.477241 0.390943
293 4 0.719503 0.449583 0.495453
294 4 0.751061 0.488145 0.465755
295 5 0.697316 0.487621 0.527046
296 4 0.744388 0.457785 0.556078
297 4 0.695535 0.512566 0.35039
298 5 0.717296 0.529168 0.439603
299 5 0.668056 0.552217 0.403993
300 4 0.733513 0.530866 0.501477
301 4 0.67557 0.580878 0.460366
302 5 0.722559 0.531495 0.567384
303 5 0.678832 0.547325 0.519207
304 4 0.691155 0.519717 0.613107
305 4 0.670269 0.580621 0.566973
306 5 0.638165 0.541133 0.668283
307 4 0.696662 0.561256 0.358084
308 5 0.686323 0.622578 0.429611
309 5 0.642861 0.611075 0.400888
310 4 0.719009 0.585479 0.502789
311 4 0.631317 0.62091 0.462439
312 5 0.715806 0.626937 0.564613
313 5 0.666283 0.611911 0.520086
314 4 0.64505 0.617166 0.628271
315 4 0.615154 0.617412 0.583028
316 5 0.623726 0.613055 0.682881
317 4 0.587651 0.682721 0.354011
318 5 0.662751 0.671768 0.434046
319 5 0.590531 0.666822 0.4241
320 4 0.635249 0.665852 0.506399
321 4 0.605686 0.707148 0.476092
322 5 0.660365 0.65648 0.5646
323 5 0.570056 0.70652 0.51913
324 4 0.60301 0.651165 0.630554
325 4 0.601508 0.675022 0.564122
326 3 0.839638 0.592071 0.344451
327 1 0.856606 0.590675 0.353567
328 1 0.778521 0.60358 0.35461
329 1 0.787753 0.596427 0.345367
330 1 0.793007 0.633572 0.302737
331 1 0.802091 0.626233 0.303474
332 1 0.802555 0.622515 0.302058
333 1 0.789795 0.588162 0.282509
334 1 0.774949 0.573112 0.292456
335 1 0.902316 0.53141 0.290334
336 1 0.846593 0.59112 0.343631
337 1 0.869571 0.650923 0.316171
338 1 0.792482 0.712852 0.269885
339 1 0.820616 0.657603 0.250044
340 1 0.732092 0.648403 0.253242
341 1 0.750071 0.633141 0.233352
342 1 0.742987 0.644426 0.261659
343 1 0.741836 0.646257 0.240496
344 1 0.686481 0.729349 0.143512
345 1 0.698147 0.714301 0.280168
346 2 0.798578 0.57836 0.343268
347 2 0.800692 0.576321 0.341356
348 2 0.771849 0.59138 0.352747
349 2 0.780792 0.589105 0.346236
350 2 0.752484 0.587824 0.374331
351 2 0.743795 0.574675 0.368865
352 2 0.800074 0.63943 0.311426
353 2 0.794662 0.63867 0.309652
354 2 0.795716 0.636428 0.300245
355 2 0.801914 0.641996 0.313499
356 2 0.832454 0.58289 0.282855
357 2 0.839412 0.587321 0.278035
358 2 0.794526 0.580563 0.275539
359 2 0.774135 0.585538 0.274684
360 2 0.772386 0.580353 0.283279
361 2 0.776884 0.573986 0.290858
362 2 0.886319 0.549989 0.309267
363 2 0.883716 0.545847 0.312483
364 2 0.915421 0.550633 0.303289
365 2 0.856186 0.594004 0.345516
366 2 0.865687 0.599778 0.340597
367 2 0.857352 0.593819 0.348183
368 2 0.85709 0.651397 0.296764
369 2 0.860528 0.646651 0.292322
370 2 0.863378 0.650921 0.314635
371 2 0.807617 0.68529 0.267021
372 2 0.792599 0.69109 0.263244
373 2 0.802534 0.683231 0.266272
374 2 0.792176 0.700226 0.270893
375 2 0.771128 0.598584 0.207369
376 2 0.801644 0.624202 0.236236
377 2 0.749743 0.648251 0.261111
378 2 0.753343 0.632319 0.248652
379 2 0.755681 0.646412 0.253019
380 2 0.755454 0.650655 0.260041
381 2 0.736697 0.74262 0.28637
382 2 0.746036 0.735958 0.256823
383 2 0.722419 0.707495 0.265728
384 2 0.706225 0.719825 0.267158
385 2 0.7005 0.69419 0.278187
386 2 0.697061 0.691841 0.274275
387 2 0.693176 0.699779 0.268889
388 3 0.120749 0.592572 0.596657
389 1 0.138115 0.581898 0.604298
390 1 0.178542 0.557311 0.629105
391 1 0.176817 0.566142 0.625536
392 1 0.182683 0.543267 0.632918
393 1 0.190172 0.540095 0.588201
394 1 0.185955 0.510036 0.573345
395 1 0.181873 0.506159 0.57588
396 1 0.179617 0.497927 0.592012
397 1 0.140854 0.682797 0.619211
398 1 0.0723318 0.593153 0.609494
399 1 0.129804 0.644336 0.55624
400 1 0.195986 0.475408 0.511623
401 1 0.206623 0.471522 0.516767
402 1 0.213037 0.485696 0.530798
403 1 0.236443 0.450173 0.577886
404 1 0.229821 0.438826 0.556825
405 1 0.240243 0.455754 0.57833
406 1 0.234824 0.390942 0.587217
407 1 0.219099 0.373919 0.587243
408 2 0.135972 0.580581 0.602808
409 2 0.135946 0.580563 0.602879
410 2 0.134818 0.580563 0.608303
411 2 0.134751 0.580614 0.608004
412 2 0.180232 0.552779 0.635815
413 2 0.183257 0.552424 0.633844
414 2 0.184534 0.552906 0.636377
415 2 0.181667 0.543675 0.638448
416 2 0.143599 0.576166 0.537101
417 2 0.142973 0.575191 0.53783
418 2 0.182955 0.522269 0.56924
419 2 0.18117 0.531642 0.571523
420 2 0.183978 0.531324 0.578781
421 2 0.183967 0.53221 0.572999
422 2 0.175287 0.476236 0.618262
423 2 0.175303 0.476223 0.618261
424 2 0.164791 0.646413 0.695022
425 2 0.129187 0.664641 0.637382
426 2 0.138306 0.674176 0.624358
427 2 0.0391053 0.602601 0.637882
428 2 0.0716952 0.59406 0.626592
429 2 0.0723746 0.595224 0.617875
430 2 0.145647 0.638835 0.52115
431 2 0.140089 0.622782 0.505363
432 2 0.134127 0.638043 0.532838
433 2 0.200462 0.483427 0.526541
434 2 0.200559 0.483373 0.526564
435 2 0.207792 0.483855 0.527328
436 2 0.203467 0.480798 0.523625
437 2 0.261547 0.520039 0.545066
438 2 0.253854 0.519975 0.557889
439 2 0.226576 0.4579 0.57956
440 2 0.228623 0.411183 0.538775
441 2 0.228301 0.460767 0.577536
442 2 0.237193 0.454418 0.566258
443 2 0.203538 0.401589 0.605439
444 2 0.208533 0.355559 0.561542
445 2 0.221308 0.363092 0.577065
446 2 0.222788 0.339896 0.633191
447 2 0.147248 0.309879 0.636658
448 2 0.212948 0.369834 0.715183
449 2 0.260672 0.322949 0.575919
450 3 0.732907 0.327765 0.500197
451 1 0.785665 0.320733 0.531917
452 1 0.808816 0.290754 0.59221
453 1 0.787163 0.313776 0.567888
454 1 0.782896 0.380994 0.501601
455 1 0.777605 0.395657 0.500897
456 1 0.76583 0.365449 0.546656
457 1 0.816396 0.374773 0.549672
458 1 0.816227 0.362144 0.567468
459 1 0.736335 0.305296 0.525147
460 1 0.768216 0.319139 0.475852
461 1 0.716983 0.326238 0.514153
462 1 0.81534 0.359537 0.56222
463 1 0.757059 0.403633 0.610184
464 1 0.849982 0.405414 0.576248
465 1 0.844356 0.391027 0.609434
466 1 0.850123 0.392382 0.604133
467 1 0.819892 0.411915 0.611275
468 1 0.897903 0.399072 0.589861
469 1 0.902968 0.400069 0.606728
470 2 0.776759 0.300899 0.478478
471 2 0.7767 0.307937 0.477883
472 2 0.793434 0.315926 0.534331
473 2 0.797035 0.309834 0.537025
474 2 0.794775 0.314418 0.537154
475 2 0.786211 0.30903 0.53688
476 2 0.781518 0.377948 0.495688
477 2 0.780819 0.375749 0.497345
478 2 0.778611 0.375965 0.504766
479 2 0.779773 0.377719 0.498213
480 2 0.755567 0.361358 0.55383
481 2 0.754598 0.368133 0.565511
482 2 0.82281 0.366068 0.55383
483 2 0.819087 0.367286 0.549062
484 2 0.818555 0.366368 0.550897
485 2 0.833408 0.358083 0.552057
486 2 0.727169 0.303291 0.55381
487 2 0.733193 0.297444 0.566495
488 2 0.8488 0.278033 0.497762
489 2 0.73208 0.358465 0.437375
490 2 0.797099 0.462012 0.491865
491 2 0.735357 0.358584 0.434996
492 2 0.729762 0.346715 0.501001
493 2 0.73163 0.337986 0.500476
494 2 0.729902 0.339617 0.504037
495 2 0.785812 0.418523 0.553477
496 2 0.783922 0.418266 0.554968
497 2 0.776426 0.421636 0.575019
498 2 0.747988 0.423366 0.620022
499 2 0.752027 0.441307 0.603519
500 2 0.744857 0.424271 0.611533
501 2 0.831726 0.405963 0.601008
502 2 0.832286 0.412821 0.599151
503 2 0.829008 0.412845 0.602501
504 2 0.85085 0.523341 0.549569
505 2 0.898819 0.348676 0.52686
506 2 0.87822 0.414565 0.660078
507 2 0.017388 0.470999 0.635041
508 2 0.893074 0.434127 0.589865
509 2 0.914652 0.367746 0.617413
510 2 0.862767 0.32389 0.608914
511 2 0.902691 0.372195 0.59699
512 3 0.316526 0.754683 0.719008
513 1 0.315443 0.71909 0.720391
514 1 0.317784 0.720014 0.735638
515 1 0.322544 0.721844 0.720931
516 1 0.376252 0.723936 0.754872
517 1 0.38365 0.72947 0.751882
518 1 0.366577 0.728462 0.746584
519 1 0.378174 0.655964 0.766039
520 1 0.372825 0.640498 0.749119
521 1 0.25088 0.727319 0.697369
522 1 0.319296 0.782305 0.684374
523 1 0.327981 0.769401 0.765349
524 1 0.405188 0.69221 0.814621
525 1 0.431628 0.745395 0.811942
526 1 0.438999 0.62854 0.794931
527 1 0.445602 0.63087 0.798579
528 1 0.450346 0.633618 0.796229
529 1 0.45278 0.643856 0.820332
530 1 0.516113 0.606694 0.799124
531 1 0.514182 0.621094 0.803036
532 2 0.31699 0.720903 0.721598
533 2 0.316993 0.720903 0.721602
534 2 0.314604 0.720446 0.721599
535 2 0.314837 0.720227 0.721388
536 2 0.348083 0.658855 0.693839
537 2 0.349283 0.672839 0.703675
538 2 0.34763 0.668018 0.694508
539 2 0.344578 0.667702 0.694178
540 2 0.375235 0.725039 0.749826
541 2 0.374915 0.725168 0.75058
542 2 0.3772 0.719079 0.748173
543 2 0.372783 0.726745 0.743571
544 2 0.378049 0.635859 0.749979
545 2 0.389353 0.650842 0.77089
546 2 0.387049 0.660192 0.757155
547 2 0.388522 0.654203 0.761038
548 2 0.254042 0.732824 0.700965
549 2 0.255441 0.743019 0.706054
550 2 0.252153 0.732547 0.702727
551 2 0.299974 0.776548 0.693681
552 2 0.302089 0.773206 0.691937
553 2 0.308909 0.77493 0.692599
554 2 0.32806 0.778224 0.752065
555 2 0.323076 0.76457 0.765204
556 2 0.326208 0.767213 0.765441
557 2 0.440222 0.755868 0.798904
558 2 0.452183 0.747686 0.808516
559 2 0.449554 0.739299 0.810029
560 2 0.441703 0.750924 0.798351
561 2 0.342087 0.721328 0.805244
562 2 0.399754 0.705753 0.810226
563 2 0.452575 0.650564 0.813261
564 2 0.453633 0.63833 0.800584
565 2 0.453033 0.650637 0.821954
566 2 0.445448 0.650486 0.813616
567 2 0.513216 0.64132 0.826881
568 2 0.502582 0.632232 0.83768
569 2 0.527415 0.598945 0.788601
570 2 0.532882 0.572003 0.768603
571 2 0.537374 0.573996 0.767702
572 2 0.534253 0.582139 0.775224
573 2 0.530208 0.593277 0.78909
574 3 0.675447 0.732675 0.492635
575 1 0.709274 0.74612 0.489853
576 1 0.70731 0.744094 0.487557
577 1 0.750438 0.706026 0.54147
578 1 0.742522 0.700159 0.539283
579 1 0.744539 0.714064 0.549087
580 1 0.747781 0.732967 0.53461
581 1 0.777819 0.698779 0.592261
582 1 0.791348 0.701036 0.583895
583 1 0.658876 0.731846 0.486774
584 1 0.682479 0.744188 0.533521
585 1 0.673843 0.738161 0.521844
586 1 0.772183 0.702422 0.594162
587 1 0.748009 0.642388 0.602009
588 1 0.816732 0.675061 0.642818
589 1 0.817249 0.686915 0.637283
590 1 0.824548 0.688585 0.646441
591 1 0.796243 0.673091 0.628466
592 1 0.87653 0.67656 0.646957
593 1 0.869675 0.690751 0.63524
594 2 0.717373 0.737754 0.486493
595 2 0.717336 0.737867 0.486575
596 2 0.717728 0.735377 0.484717
597 2 0.715758 0.741896 0.486914
598 2 0.750234 0.664063 0.546449
599 2 0.753697 0.658888 0.540847
600 2 0.74784 0.711401 0.540235
601 2 0.754463 0.717724 0.531797
602 2 0.749154 0.727237 0.538047
603 2 0.753881 0.725672 0.531603
604 2 0.703301 0.698165 0.584274
605 2 0.708882 0.696599 0.586964
606 2 0.810486 0.68302 0.571215
607 2 0.803561 0.678346 0.5692
608 2 0.79752 0.68388 0.576076
609 2 0.807289 0.679202 0.567055
610 2 0.655522 0.736366 0.484137
611 2 0.657175 0.728101 0.488453
612 2 0.65556 0.726509 0.483777
613 2 0.702033 0.793274 0.456446
614 2 0.71434 0.791279 0.457307
615 2 0.700775 0.796528 0.458041
616 2 0.68354 0.743624 0.540818
617 2 0.684528 0.743838 0.540917
618 2 0.683775 0.743367 0.540712
619 2 0.788551 0.741073 0.637584
620 2 0.766634 0.713164 0.605242
621 2 0.754397 0.643874 0.61153
622 2 0.750862 0.647364 0.606596
623 2 0.751034 0.654416 0.605264
624 2 0.748645 0.64645 0.620576
625 2 0.817818 0.680712 0.631248
626 2 0.811263 0.677057 0.635037
627 2 0.854526 0.630397 0.588229
628 2 0.811056 0.678532 0.638698
629 2 0.852305 0.720817 0.585484
630 2 0.869433 0.59478 0.566205
631 2 0.864153 0.645765 0.654546
632 2 0.851885 0.586411 0.700132
633 2 0.874583 0.69434 0.637764
634 2 0.777222 0.602036 0.566285
635 2 0.873128 0.626552 0.716213
636 3 0.665275 0.593374 0.151465
637 1 0.627669 0.646642 0.243475
638 1 0.616907 0.600022 0.241903
639 1 0.609355 0.642317 0.246276
640 1 0.572909 0.617264 0.195084
641 1 0.562961 0.600386 0.201942
642 1 0.571389 0.603913 0.190103
643 1 0.58001 0.602475 0.200316
644 1 0.503811 0.613893 0.202395
645 1 0.632851 0.591354 0.178045
646 1 0.66963 0.677261 0.220343
647 1 0.64416 0.626455 0.198716
648 1 0.509554 0.614111 0.19217
649 1 0.50249 0.607258 0.193446
650 1 0.511929 0.54629 0.195925
651 1 0.444689 0.606545 0.218964
652 1 0.446191 0.603778 0.201122
653 1 0.440535 0.606807 0.207196
654 1 0.457893 0.601155 0.217098
655 1 0.367544 0.590061 0.268636
656 2 0.616206 0.625663 0.244407
657 2 0.615539 0.62599 0.244072
658 2 0.608312 0.628346 0.244109
659 2 0.615293 0.621022 0.249811
660 2 0.600364 0.562359 0.236225
661 2 0.608063 0.55371 0.230751
662 2 0.513941 0.602249 0.25842
663 2 0.510913 0.601839 0.260704
664 2 0.572372 0.607358 0.199369
665 2 0.572408 0.607412 0.199416
666 2 0.57157 0.605364 0.200524
667 2 0.57293 0.605806 0.199402
668 2 0.572496 0.513899 0.186573
669 2 0.568632 0.525722 0.18609
670 2 0.509749 0.61646 0.195114
671 2 0.509859 0.617517 0.198757
672 2 0.698034 0.630671 0.207833
673 2 0.693477 0.63101 0.19678
674 2 0.697924 0.616851 0.200873
675 2 0.653892 0.672616 0.227618
676 2 0.65944 0.671403 0.230515
677 2 0.652912 0.672323 0.226854
678 2 0.638577 0.602112 0.190768
679 2 0.638506 0.602339 0.190636
680 2 0.636691 0.606114 0.188104
681 2 0.507166 0.618055 0.199492
682 2 0.50795 0.619354 0.198888
683 2 0.533377 0.574708 0.148055
684 2 0.540042 0.572948 0.1454
685 2 0.513301 0.559507 0.167564
686 2 0.50956 0.553042 0.182047
687 2 0.509964 0.555114 0.202891
688 2 0.442718 0.510205 0.144989
689 2 0.443724 0.609255 0.220143
690 2 0.441396 0.609753 0.215901
691 2 0.452873 0.618648 0.238569
692 2 0.457781 0.620869 0.249794
693 2 0.372176 0.585169 0.283644
694 2 0.370164 0.59535 0.28365
695 2 0.361184 0.584118 0.278452
696 2 0.367521 0.586344 0.275902
697 2 0.378637 0.588331 0.287137
698 3 0.246385 0.613001 0.375773
699 1 0.235636 0.600698 0.351867
700 1 0.237746 0.608884 0.354689
701 1 0.247722 0.591831 0.370367
702 1 0.256447 0.581681 0.442026
703 1 0.170376 0.56267 0.380568
704 1 0.22271 0.541501 0.388321
705 1 0.240971 0.566158 0.422431
706 1 0.178338 0.523177 0.38871
707 1 0.201496 0.633939 0.407701
708 1 0.187458 0.598919 0.419866
709 1 0.195971 0.609436 0.410999
710 1 0.162441 0.494206 0.415052
711 1 0.167692 0.476758 0.397419
712 1 0.241052 0.472758 0.330547
713 1 0.252084 0.455736 0.390706
714 1 0.240091 0.448063 0.406149
715 1 0.243306 0.451143 0.400777
716 1 0.263182 0.413554 0.363178
717 1 0.260684 0.422356 0.347351
718 2 0.232406 0.607076 0.361263
719 2 0.233236 0.611463 0.361064
720 2 0.229627 0.604752 0.368103
721 2 0.229429 0.605234 0.367937
722 2 0.279548 0.571141 0.36319
723 2 0.279495 0.570721 0.363963
724 2 0.272557 0.56437 0.375309
725 2 0.282455 0.575341 0.368288
726 2 0.248355 0.564191 0.420178
727 2 0.244371 0.56275 0.414017
728 2 0.188786 0.550527 0.376397
729 2 0.193399 0.549589 0.381905
730 2 0.188327 0.554053 0.378221
731 2 0.256753 0.507161 0.381139
732 2 0.254281 0.501526 0.375261
733 2 0.254467 0.503968 0.377237
734 2 0.189825 0.654709 0.393714
735 2 0.192088 0.65624 0.393469
736 2 0.189791 0.652764 0.389623
737 2 0.249382 0.632553 0.425137
738 2 0.253387 0.628737 0.41724
739 2 0.252873 0.635039 0.430098
740 2 0.19762 0.60376 0.42098
741 2 0.196246 0.604868 0.419347
742 2 0.192463 0.598607 0.423669
743 2 0.169528 0.481013 0.386321
744 2 0.17766 0.486043 0.396009
745 2 0.190753 0.487926 0.397843
746 2 0.176458 0.490907 0.3968
747 2 0.242237 0.470046 0.321966
748 2 0.245698 0.474548 0.324326
749 2 0.242285 0.475181 0.319516
750 2 0.241052 0.449884 0.403959
751 2 0.252066 0.449541 0.411184
752 2 0.246685 0.449107 0.400955
753 2 0.270015 0.423095 0.359749
754 2 0.265165 0.424433 0.354596
755 2 0.277272 0.414366 0.356899
756 2 0.283823 0.407432 0.371222
757 2 0.296373 0.448311 0.44337
758 2 0.33119 0.418164 0.340086
759 2 0.346557 0.331145 0.466484
760 3 0.622302 0.552716 0.834007
761 1 0.604344 0.559384 0.830366
762 1 0.620006 0.555821 0.826345
763 1 0.61501 0.542666 0.837371
764 1 0.603568 0.496684 0.842544
765 1 0.621726 0.517352 0.741097
766 1 0.64729 0.523928 0.780213
767 1 0.640141 0.525611 0.789366
768 1 0.599704 0.481823 0.787681
769 1 0.588874 0.59386 0.815872
770 1 0.569933 0.633677 0.784212
771 1 0.608319 0.557218 0.77699
772 1 0.595568 0.479152 0.773841
773 1 0.656468 0.459228 0.748096
774 1 0.648758 0.462089 0.75132
775 1 0.594883 0.390175 0.725927
776 1 0.596184 0.374564 0.722033
777 1 0.617842 0.410479 0.747859
778 1 0.561677 0.359633 0.776984
779 1 0.57455 0.375683 0.773975
780 2 0.614174 0.556977 0.831078
781 2 0.614176 0.556976 0.831079
782 2 0.616781 0.555338 0.838519
783 2 0.614832 0.555282 0.836058
784 2 0.612024 0.491723 0.840018
785 2 0.765899 0.455842 0.79457
786 2 0.616673 0.492014 0.838043
787 2 0.616047 0.493835 0.837882
788 2 0.611732 0.523402 0.736274
789 2 0.618972 0.51749 0.734994
790 2 0.65073 0.520527 0.791311
791 2 0.651224 0.519977 0.779994
792 2 0.637366 0.514274 0.784835
793 2 0.645042 0.52173 0.788879
794 2 0.595381 0.476722 0.781112
795 2 0.595734 0.470889 0.78196
796 2 0.672237 0.599749 0.801812
797 2 0.662722 0.580316 0.80807
798 2 0.663578 0.594638 0.789698
799 2 0.580017 0.611285 0.818133
800 2 0.581727 0.613225 0.816119
801 2 0.577998 0.612945 0.81354
802 2 0.594878 0.569303 0.778938
803 2 0.599795 0.561533 0.769948
804 2 0.602647 0.567605 0.774161
805 2 0.597896 0.476583 0.785792
806 2 0.593968 0.474904 0.784579
807 2 0.64563 0.567973 0.721719
808 2 0.645482 0.589296 0.735264
809 2 0.649455 0.466064 0.743458
810 2 0.648398 0.464308 0.744252
811 2 0.647434 0.464068 0.7422
812 2 0.648207 0.466399 0.742583
813 2 0.609126 0.389827 0.727279
814 2 0.624138 0.401946 0.73835
815 2 0.616192 0.417392 0.736505
816 2 0.609729 0.407451 0.733401
817 2 0.56264 0.36393 0.771164
818 2 0.56105 0.36642 0.7715
819 2 0.566594 0.363972 0.770762
820 2 0.56009 0.363634 0.770842
821 2 0.561796 0.36318 0.764186
822 3 0.249746 0.398362 0.419316
823 1 0.245771 0.414756 0.458471
824 1 0.249314 0.488837 0.443594
825 1 0.255191 0.464804 0.496662
826 1 0.224579 0.485358 0.450451
827 1 0.187511 0.48798 0.464602
828 1 0.173561 0.48246 0.460375
829 1 0.236374 0.53433 0.499894
830 1 0.189909 0.536439 0.461876
831 1 0.262557 0.385607 0.449519
832 1 0.232275 0.393779 0.411053
833 1 0.201886 0.421399 0.479893
834 1 0.177657 0.547481 0.449126
835 1 0.179807 0.541797 0.513235
836 1 0.220816 0.554587 0.536644
837 1 0.225309 0.571782 0.540898
838 1 0.197524 0.594509 0.478395
839 1 0.205898 0.585598 0.476956
840 1 0.212313 0.577298 0.487943
841 1 0.219336 0.655996 0.462575
842 2 0.262379 0.463427 0.49697
843 2 0.257445 0.461705 0.486635
844 2 0.255211 0.451312 0.482209
845 2 0.250568 0.451646 0.487208
846 2 0.241378 0.504142 0.431686
847 2 0.276127 0.364674 0.538095
848 2 0.239826 0.498328 0.43702
849 2 0.223441 0.490903 0.44632
850 2 0.188112 0.48236 0.464916
851 2 0.193812 0.476648 0.463634
852 2 0.245116 0.53193 0.483854
853 2 0.242232 0.5323 0.489999
854 2 0.235891 0.524853 0.493557
855 2 0.234245 0.524504 0.494033
856 2 0.1869 0.541822 0.445525
857 2 0.193394 0.53874 0.443743
858 2 0.26347 0.397496 0.453785
859 2 0.259551 0.400961 0.460479
860 2 0.270312 0.393388 0.4528
861 2 0.233346 0.388964 0.402677
862 2 0.233501 0.389377 0.402767
863 2 0.23241 0.387264 0.40278
864 2 0.203579 0.419047 0.474509
865 2 0.20192 0.422559 0.477326
866 2 0.203807 0.418761 0.475017
867 2 0.192963 0.537903 0.44376
868 2 0.190947 0.537778 0.444257
869 2 0.173586 0.529295 0.501497
870 2 0.172939 0.530015 0.501788
871 2 0.227581 0.569782 0.544646
872 2 0.222928 0.570266 0.541282
873 2 0.221971 0.567463 0.541454
874 2 0.226102 0.569592 0.545014
875 2 0.184413 0.588254 0.490653
876 2 0.191925 0.601628 0.481385
877 2 0.206617 0.581561 0.481282
878 2 0.198777 0.587777 0.49386
879 2 0.173835 0.701449 0.516325
880 2 0.203119 0.662661 0.463831
881 2 0.201309 0.66263 0.468302
882 2 0.187932 0.675231 0.47638
883 2 0.206986 0.66454 0.457925
884 3 0.449083 0.788377 0.74543
885 1 0.47027 0.80939 0.745234
886 1 0.487357 0.83833 0.730129