LAMMPS data file. CGCMM style. atom_style full generated by VMD/TopoTools v1.8 on Fri May 09 19:59:10 +0530 2025
 3425 atoms
 3050 bonds
 0 angles
 0 dihedrals
 0 impropers
 5 atom types
 1 bond types
 0 angle types
 0 dihedral types
 0 improper types
 -30.756500 29.243500  xlo xhi
 -30.018000 29.982000  ylo yhi
 -30.276000 29.724000  zlo zhi

# Pair Coeffs
#
# 1  C
# 2  H
# 3  N
# 4  O
# 5  Zn

# Bond Coeffs
#
# 1  

 Masses

 1 12.010700 # C
 2 1.007940 # H
 3 14.006700 # N
 4 15.999400 # O
 5 65.408997 # Zn

 Atoms # full

1 1 4 0.000000 -3.237000 -7.476000 -5.053000 # O MOL
2 1 5 0.000000 -3.237000 -7.476000 -1.811000 # Zn MOL
3 1 5 0.000000 -4.856000 -6.542000 -4.422000 # Zn MOL
4 1 4 0.000000 -3.237000 -7.476000 0.169000 # O MOL
5 1 4 0.000000 -4.856000 -6.542000 -2.442000 # O MOL
6 1 5 0.000000 -3.237000 -7.476000 3.411000 # Zn MOL
7 1 5 0.000000 -4.856000 -6.542000 0.800000 # Zn MOL
8 1 4 0.000000 -3.237000 -7.476000 5.391000 # O MOL
9 1 4 0.000000 -4.856000 -6.542000 2.780000 # O MOL
10 1 5 0.000000 -4.856000 -4.673000 -7.033000 # Zn MOL
11 1 4 0.000000 -4.856000 -4.673000 -5.053000 # O MOL
12 1 5 0.000000 -4.856000 -4.673000 -1.811000 # Zn MOL
13 1 5 0.000000 -6.475000 -3.738000 -4.422000 # Zn MOL
14 1 4 0.000000 -4.856000 -4.673000 0.169000 # O MOL
15 1 4 0.000000 -6.475000 -3.738000 -2.442000 # O MOL
16 1 5 0.000000 -4.856000 -4.673000 3.411000 # Zn MOL
17 1 5 0.000000 -6.475000 -3.738000 0.800000 # Zn MOL
18 1 4 0.000000 -4.856000 -4.673000 5.391000 # O MOL
19 1 4 0.000000 -6.475000 -3.738000 2.780000 # O MOL
20 1 5 0.000000 -6.475000 -3.738000 6.022000 # Zn MOL
21 1 5 0.000000 -6.475000 -1.869000 -7.033000 # Zn MOL
22 1 4 0.000000 -6.475000 -1.869000 -5.053000 # O MOL
23 1 5 0.000000 -6.475000 -1.869000 -1.811000 # Zn MOL
24 1 5 0.000000 -8.093000 -0.935000 -4.422000 # Zn MOL
25 1 4 0.000000 -6.475000 -1.869000 0.169000 # O MOL
26 1 4 0.000000 -8.093000 -0.935000 -2.442000 # O MOL
27 1 5 0.000000 -6.475000 -1.869000 3.411000 # Zn MOL
28 1 5 0.000000 -8.093000 -0.935000 0.800000 # Zn MOL
29 1 4 0.000000 -6.475000 -1.869000 5.391000 # O MOL
30 1 4 0.000000 -8.093000 -0.935000 2.780000 # O MOL
31 1 4 0.000000 -8.093000 0.934000 -5.053000 # O MOL
32 1 5 0.000000 -8.093000 0.934000 -1.811000 # Zn MOL
33 1 4 0.000000 -8.093000 0.934000 0.169000 # O MOL
34 1 5 0.000000 -8.093000 0.934000 3.411000 # Zn MOL
35 1 5 0.000000 -9.712000 1.869000 0.800000 # Zn MOL
36 1 4 0.000000 -8.093000 0.934000 5.391000 # O MOL
37 1 4 0.000000 0.000000 -7.476000 -5.053000 # O MOL
38 1 5 0.000000 0.000000 -7.476000 -1.811000 # Zn MOL
39 1 5 0.000000 -1.619000 -6.542000 -4.422000 # Zn MOL
40 1 4 0.000000 0.000000 -7.476000 0.169000 # O MOL
41 1 4 0.000000 -1.619000 -6.542000 -2.442000 # O MOL
42 1 5 0.000000 0.000000 -7.476000 3.411000 # Zn MOL
43 1 5 0.000000 -1.619000 -6.542000 0.800000 # Zn MOL
44 1 4 0.000000 0.000000 -7.476000 5.391000 # O MOL
45 1 4 0.000000 -1.619000 -6.542000 2.780000 # O MOL
46 1 5 0.000000 -1.619000 -6.542000 6.022000 # Zn MOL
47 1 5 0.000000 -1.619000 -4.673000 -7.033000 # Zn MOL
48 1 4 0.000000 -1.619000 -4.673000 -5.053000 # O MOL
49 1 4 0.000000 -3.237000 -3.738000 -7.664000 # O MOL
50 1 5 0.000000 -1.619000 -4.673000 -1.811000 # Zn MOL
51 1 5 0.000000 -3.237000 -3.738000 -4.422000 # Zn MOL
52 1 4 0.000000 -1.619000 -4.673000 0.169000 # O MOL
53 1 4 0.000000 -3.237000 -3.738000 -2.442000 # O MOL
54 1 5 0.000000 -1.619000 -4.673000 3.411000 # Zn MOL
55 1 5 0.000000 -3.237000 -3.738000 0.800000 # Zn MOL
56 1 4 0.000000 -1.619000 -4.673000 5.391000 # O MOL
57 1 4 0.000000 -3.237000 -3.738000 2.780000 # O MOL
58 1 5 0.000000 -3.237000 -3.738000 6.022000 # Zn MOL
59 1 4 0.000000 -3.237000 -3.738000 8.002000 # O MOL
60 1 5 0.000000 -3.237000 -1.869000 -7.033000 # Zn MOL
61 1 4 0.000000 -3.237000 -1.869000 -5.053000 # O MOL
62 1 4 0.000000 -4.856000 -0.935000 -7.664000 # O MOL
63 1 5 0.000000 -3.237000 -1.869000 -1.811000 # Zn MOL
64 1 5 0.000000 -4.856000 -0.935000 -4.422000 # Zn MOL
65 1 4 0.000000 -3.237000 -1.869000 0.169000 # O MOL
66 1 4 0.000000 -4.856000 -0.935000 -2.442000 # O MOL
67 1 5 0.000000 -3.237000 -1.869000 3.411000 # Zn MOL
68 1 5 0.000000 -4.856000 -0.935000 0.800000 # Zn MOL
69 1 4 0.000000 -3.237000 -1.869000 5.391000 # O MOL
70 1 4 0.000000 -4.856000 -0.935000 2.780000 # O MOL
71 1 5 0.000000 -3.237000 -1.869000 8.633000 # Zn MOL
72 1 5 0.000000 -4.856000 -0.935000 6.022000 # Zn MOL
73 1 4 0.000000 -4.856000 -0.935000 8.002000 # O MOL
74 1 5 0.000000 -4.856000 0.934000 -7.033000 # Zn MOL
75 1 4 0.000000 -4.856000 0.934000 -5.053000 # O MOL
76 1 5 0.000000 -4.856000 0.934000 -1.811000 # Zn MOL
77 1 5 0.000000 -6.475000 1.869000 -4.422000 # Zn MOL
78 1 4 0.000000 -4.856000 0.934000 0.169000 # O MOL
79 1 4 0.000000 -6.475000 1.869000 -2.442000 # O MOL
80 1 5 0.000000 -4.856000 0.934000 3.411000 # Zn MOL
81 1 5 0.000000 -6.475000 1.869000 0.800000 # Zn MOL
82 1 4 0.000000 -4.856000 0.934000 5.391000 # O MOL
83 1 4 0.000000 -6.475000 1.869000 2.780000 # O MOL
84 1 5 0.000000 -6.475000 1.869000 6.022000 # Zn MOL
85 1 4 0.000000 -6.475000 3.738000 -5.053000 # O MOL
86 1 5 0.000000 -6.475000 3.738000 -1.811000 # Zn MOL
87 1 4 0.000000 -6.475000 3.738000 0.169000 # O MOL
88 1 4 0.000000 -8.093000 4.673000 -2.442000 # O MOL
89 1 5 0.000000 -6.475000 3.738000 3.411000 # Zn MOL
90 1 5 0.000000 -8.093000 4.673000 0.800000 # Zn MOL
91 1 4 0.000000 -6.475000 3.738000 5.391000 # O MOL
92 1 4 0.000000 -8.093000 4.673000 2.780000 # O MOL
93 1 4 0.000000 3.237000 -7.476000 -5.053000 # O MOL
94 1 5 0.000000 3.237000 -7.476000 -1.811000 # Zn MOL
95 1 5 0.000000 1.619000 -6.542000 -4.422000 # Zn MOL
96 1 4 0.000000 3.237000 -7.476000 0.169000 # O MOL
97 1 4 0.000000 1.619000 -6.542000 -2.442000 # O MOL
98 1 5 0.000000 3.237000 -7.476000 3.411000 # Zn MOL
99 1 5 0.000000 1.619000 -6.542000 0.800000 # Zn MOL
100 1 4 0.000000 3.237000 -7.476000 5.391000 # O MOL
101 1 4 0.000000 1.619000 -6.542000 2.780000 # O MOL
102 1 5 0.000000 1.619000 -6.542000 6.022000 # Zn MOL
103 1 5 0.000000 1.619000 -4.673000 -7.033000 # Zn MOL
104 1 4 0.000000 1.619000 -4.673000 -5.053000 # O MOL
105 1 4 0.000000 0.000000 -3.738000 -7.664000 # O MOL
106 1 5 0.000000 1.619000 -4.673000 -1.811000 # Zn MOL
107 1 5 0.000000 0.000000 -3.738000 -4.422000 # Zn MOL
108 1 4 0.000000 1.619000 -4.673000 0.169000 # O MOL
109 1 4 0.000000 0.000000 -3.738000 -2.442000 # O MOL
110 1 5 0.000000 1.619000 -4.673000 3.411000 # Zn MOL
111 1 5 0.000000 0.000000 -3.738000 0.800000 # Zn MOL
112 1 4 0.000000 1.619000 -4.673000 5.391000 # O MOL
113 1 4 0.000000 0.000000 -3.738000 2.780000 # O MOL
114 1 5 0.000000 0.000000 -3.738000 6.022000 # Zn MOL
115 1 4 0.000000 0.000000 -3.738000 8.002000 # O MOL
116 1 5 0.000000 0.000000 -1.869000 -7.033000 # Zn MOL
117 1 5 0.000000 -1.619000 -0.935000 -9.644000 # Zn MOL
118 1 4 0.000000 0.000000 -1.869000 -5.053000 # O MOL
119 1 4 0.000000 -1.619000 -0.935000 -7.664000 # O MOL
120 1 5 0.000000 0.000000 -1.869000 -1.811000 # Zn MOL
121 1 5 0.000000 -1.619000 -0.935000 -4.422000 # Zn MOL
122 1 4 0.000000 0.000000 -1.869000 0.169000 # O MOL
123 1 4 0.000000 -1.619000 -0.935000 -2.442000 # O MOL
124 1 5 0.000000 0.000000 -1.869000 3.411000 # Zn MOL
125 1 5 0.000000 -1.619000 -0.935000 0.800000 # Zn MOL
126 1 4 0.000000 0.000000 -1.869000 5.391000 # O MOL
127 1 4 0.000000 -1.619000 -0.935000 2.780000 # O MOL
128 1 5 0.000000 0.000000 -1.869000 8.633000 # Zn MOL
129 1 5 0.000000 -1.619000 -0.935000 6.022000 # Zn MOL
130 1 4 0.000000 -1.619000 -0.935000 8.002000 # O MOL
131 1 5 0.000000 -1.619000 0.934000 -7.033000 # Zn MOL
132 1 4 0.000000 -1.619000 0.934000 -5.053000 # O MOL
133 1 4 0.000000 -3.237000 1.869000 -7.664000 # O MOL
134 1 5 0.000000 -1.619000 0.934000 -1.811000 # Zn MOL
135 1 5 0.000000 -3.237000 1.869000 -4.422000 # Zn MOL
136 1 4 0.000000 -1.619000 0.934000 0.169000 # O MOL
137 1 4 0.000000 -3.237000 1.869000 -2.442000 # O MOL
138 1 5 0.000000 -1.619000 0.934000 3.411000 # Zn MOL
139 1 5 0.000000 -3.237000 1.869000 0.800000 # Zn MOL
140 1 4 0.000000 -1.619000 0.934000 5.391000 # O MOL
141 1 4 0.000000 -3.237000 1.869000 2.780000 # O MOL
142 1 5 0.000000 -1.619000 0.934000 8.633000 # Zn MOL
143 1 5 0.000000 -3.237000 1.869000 6.022000 # Zn MOL
144 1 4 0.000000 -3.237000 1.869000 8.002000 # O MOL
145 1 5 0.000000 -3.237000 3.738000 -7.033000 # Zn MOL
146 1 4 0.000000 -3.237000 3.738000 -5.053000 # O MOL
147 1 5 0.000000 -3.237000 3.738000 -1.811000 # Zn MOL
148 1 5 0.000000 -4.856000 4.673000 -4.422000 # Zn MOL
149 1 4 0.000000 -3.237000 3.738000 0.169000 # O MOL
150 1 4 0.000000 -4.856000 4.673000 -2.442000 # O MOL
151 1 5 0.000000 -3.237000 3.738000 3.411000 # Zn MOL
152 1 5 0.000000 -4.856000 4.673000 0.800000 # Zn MOL
153 1 4 0.000000 -3.237000 3.738000 5.391000 # O MOL
154 1 4 0.000000 -4.856000 4.673000 2.780000 # O MOL
155 1 5 0.000000 -4.856000 4.673000 6.022000 # Zn MOL
156 1 4 0.000000 -4.856000 6.542000 -5.053000 # O MOL
157 1 5 0.000000 -4.856000 6.542000 -1.811000 # Zn MOL
158 1 4 0.000000 -4.856000 6.542000 0.169000 # O MOL
159 1 5 0.000000 -4.856000 6.542000 3.411000 # Zn MOL
160 1 5 0.000000 -6.475000 7.476000 0.800000 # Zn MOL
161 1 4 0.000000 -4.856000 6.542000 5.391000 # O MOL
162 1 5 0.000000 4.856000 -6.542000 -4.422000 # Zn MOL
163 1 4 0.000000 6.475000 -7.476000 0.169000 # O MOL
164 1 4 0.000000 4.856000 -6.542000 -2.442000 # O MOL
165 1 5 0.000000 4.856000 -6.542000 0.800000 # Zn MOL
166 1 4 0.000000 4.856000 -6.542000 2.780000 # O MOL
167 1 5 0.000000 4.856000 -4.673000 -7.033000 # Zn MOL
168 1 4 0.000000 4.856000 -4.673000 -5.053000 # O MOL
169 1 4 0.000000 3.237000 -3.738000 -7.664000 # O MOL
170 1 5 0.000000 4.856000 -4.673000 -1.811000 # Zn MOL
171 1 5 0.000000 3.237000 -3.738000 -4.422000 # Zn MOL
172 1 4 0.000000 4.856000 -4.673000 0.169000 # O MOL
173 1 4 0.000000 3.237000 -3.738000 -2.442000 # O MOL
174 1 5 0.000000 4.856000 -4.673000 3.411000 # Zn MOL
175 1 5 0.000000 3.237000 -3.738000 0.800000 # Zn MOL
176 1 4 0.000000 4.856000 -4.673000 5.391000 # O MOL
177 1 4 0.000000 3.237000 -3.738000 2.780000 # O MOL
178 1 5 0.000000 3.237000 -3.738000 6.022000 # Zn MOL
179 1 4 0.000000 3.237000 -3.738000 8.002000 # O MOL
180 1 5 0.000000 3.237000 -1.869000 -7.033000 # Zn MOL
181 1 5 0.000000 1.619000 -0.935000 -9.644000 # Zn MOL
182 1 4 0.000000 3.237000 -1.869000 -5.053000 # O MOL
183 1 4 0.000000 1.619000 -0.935000 -7.664000 # O MOL
184 1 5 0.000000 3.237000 -1.869000 -1.811000 # Zn MOL
185 1 5 0.000000 1.619000 -0.935000 -4.422000 # Zn MOL
186 1 4 0.000000 3.237000 -1.869000 0.169000 # O MOL
187 1 4 0.000000 1.619000 -0.935000 -2.442000 # O MOL
188 1 5 0.000000 3.237000 -1.869000 3.411000 # Zn MOL
189 1 5 0.000000 1.619000 -0.935000 0.800000 # Zn MOL
190 1 4 0.000000 3.237000 -1.869000 5.391000 # O MOL
191 1 4 0.000000 1.619000 -0.935000 2.780000 # O MOL
192 1 5 0.000000 3.237000 -1.869000 8.633000 # Zn MOL
193 1 5 0.000000 1.619000 -0.935000 6.022000 # Zn MOL
194 1 4 0.000000 1.619000 -0.935000 8.002000 # O MOL
195 1 5 0.000000 1.619000 0.934000 -7.033000 # Zn MOL
196 1 5 0.000000 0.000000 1.869000 -9.644000 # Zn MOL
197 1 4 0.000000 1.619000 0.934000 -5.053000 # O MOL
198 1 4 0.000000 0.000000 1.869000 -7.664000 # O MOL
199 1 5 0.000000 1.619000 0.934000 -1.811000 # Zn MOL
200 1 5 0.000000 0.000000 1.869000 -4.422000 # Zn MOL
201 1 4 0.000000 1.619000 0.934000 0.169000 # O MOL
202 1 4 0.000000 0.000000 1.869000 -2.442000 # O MOL
203 1 5 0.000000 1.619000 0.934000 3.411000 # Zn MOL
204 1 5 0.000000 0.000000 1.869000 0.800000 # Zn MOL
205 1 4 0.000000 1.619000 0.934000 5.391000 # O MOL
206 1 4 0.000000 0.000000 1.869000 2.780000 # O MOL
207 1 5 0.000000 1.619000 0.934000 8.633000 # Zn MOL
208 1 5 0.000000 0.000000 1.869000 6.022000 # Zn MOL
209 1 4 0.000000 0.000000 1.869000 8.002000 # O MOL
210 1 5 0.000000 0.000000 3.738000 -7.033000 # Zn MOL
211 1 4 0.000000 0.000000 3.738000 -5.053000 # O MOL
212 1 4 0.000000 -1.619000 4.673000 -7.664000 # O MOL
213 1 5 0.000000 0.000000 3.738000 -1.811000 # Zn MOL
214 1 5 0.000000 -1.619000 4.673000 -4.422000 # Zn MOL
215 1 4 0.000000 0.000000 3.738000 0.169000 # O MOL
216 1 4 0.000000 -1.619000 4.673000 -2.442000 # O MOL
217 1 5 0.000000 0.000000 3.738000 3.411000 # Zn MOL
218 1 5 0.000000 -1.619000 4.673000 0.800000 # Zn MOL
219 1 4 0.000000 0.000000 3.738000 5.391000 # O MOL
220 1 4 0.000000 -1.619000 4.673000 2.780000 # O MOL
221 1 5 0.000000 0.000000 3.738000 8.633000 # Zn MOL
222 1 5 0.000000 -1.619000 4.673000 6.022000 # Zn MOL
223 1 4 0.000000 -1.619000 4.673000 8.002000 # O MOL
224 1 5 0.000000 -1.619000 6.542000 -7.033000 # Zn MOL
225 1 4 0.000000 -1.619000 6.542000 -5.053000 # O MOL
226 1 5 0.000000 -1.619000 6.542000 -1.811000 # Zn MOL
227 1 5 0.000000 -3.237000 7.476000 -4.422000 # Zn MOL
228 1 4 0.000000 -1.619000 6.542000 0.169000 # O MOL
229 1 4 0.000000 -3.237000 7.476000 -2.442000 # O MOL
230 1 5 0.000000 -1.619000 6.542000 3.411000 # Zn MOL
231 1 5 0.000000 -3.237000 7.476000 0.800000 # Zn MOL
232 1 4 0.000000 -1.619000 6.542000 5.391000 # O MOL
233 1 4 0.000000 -3.237000 7.476000 2.780000 # O MOL
234 1 5 0.000000 8.093000 -4.673000 -1.811000 # Zn MOL
235 1 5 0.000000 6.475000 -3.738000 -4.422000 # Zn MOL
236 1 4 0.000000 8.093000 -4.673000 0.169000 # O MOL
237 1 4 0.000000 6.475000 -3.738000 -2.442000 # O MOL
238 1 5 0.000000 8.093000 -4.673000 3.411000 # Zn MOL
239 1 5 0.000000 6.475000 -3.738000 0.800000 # Zn MOL
240 1 4 0.000000 6.475000 -3.738000 2.780000 # O MOL
241 1 5 0.000000 6.475000 -3.738000 6.022000 # Zn MOL
242 1 5 0.000000 6.475000 -1.869000 -7.033000 # Zn MOL
243 1 4 0.000000 6.475000 -1.869000 -5.053000 # O MOL
244 1 4 0.000000 4.856000 -0.935000 -7.664000 # O MOL
245 1 5 0.000000 6.475000 -1.869000 -1.811000 # Zn MOL
246 1 5 0.000000 4.856000 -0.935000 -4.422000 # Zn MOL
247 1 4 0.000000 6.475000 -1.869000 0.169000 # O MOL
248 1 4 0.000000 4.856000 -0.935000 -2.442000 # O MOL
249 1 5 0.000000 6.475000 -1.869000 3.411000 # Zn MOL
250 1 5 0.000000 4.856000 -0.935000 0.800000 # Zn MOL
251 1 4 0.000000 6.475000 -1.869000 5.391000 # O MOL
252 1 4 0.000000 4.856000 -0.935000 2.780000 # O MOL
253 1 5 0.000000 4.856000 -0.935000 6.022000 # Zn MOL
254 1 4 0.000000 4.856000 -0.935000 8.002000 # O MOL
255 1 5 0.000000 4.856000 0.934000 -7.033000 # Zn MOL
256 1 4 0.000000 4.856000 0.934000 -5.053000 # O MOL
257 1 4 0.000000 3.237000 1.869000 -7.664000 # O MOL
258 1 5 0.000000 4.856000 0.934000 -1.811000 # Zn MOL
259 1 5 0.000000 3.237000 1.869000 -4.422000 # Zn MOL
260 1 4 0.000000 4.856000 0.934000 0.169000 # O MOL
261 1 4 0.000000 3.237000 1.869000 -2.442000 # O MOL
262 1 5 0.000000 4.856000 0.934000 3.411000 # Zn MOL
263 1 5 0.000000 3.237000 1.869000 0.800000 # Zn MOL
264 1 4 0.000000 4.856000 0.934000 5.391000 # O MOL
265 1 4 0.000000 3.237000 1.869000 2.780000 # O MOL
266 1 5 0.000000 3.237000 1.869000 6.022000 # Zn MOL
267 1 4 0.000000 3.237000 1.869000 8.002000 # O MOL
268 1 5 0.000000 3.237000 3.738000 -7.033000 # Zn MOL
269 1 4 0.000000 3.237000 3.738000 -5.053000 # O MOL
270 1 4 0.000000 1.619000 4.673000 -7.664000 # O MOL
271 1 5 0.000000 3.237000 3.738000 -1.811000 # Zn MOL
272 1 5 0.000000 1.619000 4.673000 -4.422000 # Zn MOL
273 1 4 0.000000 3.237000 3.738000 0.169000 # O MOL
274 1 4 0.000000 1.619000 4.673000 -2.442000 # O MOL
275 1 5 0.000000 3.237000 3.738000 3.411000 # Zn MOL
276 1 5 0.000000 1.619000 4.673000 0.800000 # Zn MOL
277 1 4 0.000000 3.237000 3.738000 5.391000 # O MOL
278 1 4 0.000000 1.619000 4.673000 2.780000 # O MOL
279 1 5 0.000000 1.619000 4.673000 6.022000 # Zn MOL
280 1 4 0.000000 1.619000 4.673000 8.002000 # O MOL
281 1 5 0.000000 1.619000 6.542000 -7.033000 # Zn MOL
282 1 4 0.000000 1.619000 6.542000 -5.053000 # O MOL
283 1 5 0.000000 1.619000 6.542000 -1.811000 # Zn MOL
284 1 5 0.000000 0.000000 7.476000 -4.422000 # Zn MOL
285 1 4 0.000000 1.619000 6.542000 0.169000 # O MOL
286 1 4 0.000000 0.000000 7.476000 -2.442000 # O MOL
287 1 5 0.000000 1.619000 6.542000 3.411000 # Zn MOL
288 1 5 0.000000 0.000000 7.476000 0.800000 # Zn MOL
289 1 4 0.000000 1.619000 6.542000 5.391000 # O MOL
290 1 4 0.000000 0.000000 7.476000 2.780000 # O MOL
291 1 5 0.000000 0.000000 7.476000 6.022000 # Zn MOL
292 1 5 0.000000 8.093000 -0.935000 -4.422000 # Zn MOL
293 1 4 0.000000 9.712000 -1.869000 0.169000 # O MOL
294 1 4 0.000000 8.093000 -0.935000 -2.442000 # O MOL
295 1 5 0.000000 8.093000 -0.935000 0.800000 # Zn MOL
296 1 4 0.000000 8.093000 -0.935000 2.780000 # O MOL
297 1 4 0.000000 8.093000 0.934000 -5.053000 # O MOL
298 1 5 0.000000 8.093000 0.934000 -1.811000 # Zn MOL
299 1 5 0.000000 6.475000 1.869000 -4.422000 # Zn MOL
300 1 4 0.000000 8.093000 0.934000 0.169000 # O MOL
301 1 4 0.000000 6.475000 1.869000 -2.442000 # O MOL
302 1 5 0.000000 8.093000 0.934000 3.411000 # Zn MOL
303 1 5 0.000000 6.475000 1.869000 0.800000 # Zn MOL
304 1 4 0.000000 8.093000 0.934000 5.391000 # O MOL
305 1 4 0.000000 6.475000 1.869000 2.780000 # O MOL
306 1 5 0.000000 6.475000 1.869000 6.022000 # Zn MOL
307 1 4 0.000000 6.475000 3.738000 -5.053000 # O MOL
308 1 5 0.000000 6.475000 3.738000 -1.811000 # Zn MOL
309 1 5 0.000000 4.856000 4.673000 -4.422000 # Zn MOL
310 1 4 0.000000 6.475000 3.738000 0.169000 # O MOL
311 1 4 0.000000 4.856000 4.673000 -2.442000 # O MOL
312 1 5 0.000000 6.475000 3.738000 3.411000 # Zn MOL
313 1 5 0.000000 4.856000 4.673000 0.800000 # Zn MOL
314 1 4 0.000000 6.475000 3.738000 5.391000 # O MOL
315 1 4 0.000000 4.856000 4.673000 2.780000 # O MOL
316 1 5 0.000000 4.856000 4.673000 6.022000 # Zn MOL
317 1 4 0.000000 4.856000 6.542000 -5.053000 # O MOL
318 1 5 0.000000 4.856000 6.542000 -1.811000 # Zn MOL
319 1 5 0.000000 3.237000 7.476000 -4.422000 # Zn MOL
320 1 4 0.000000 4.856000 6.542000 0.169000 # O MOL
321 1 4 0.000000 3.237000 7.476000 -2.442000 # O MOL
322 1 5 0.000000 4.856000 6.542000 3.411000 # Zn MOL
323 1 5 0.000000 3.237000 7.476000 0.800000 # Zn MOL
324 1 4 0.000000 4.856000 6.542000 5.391000 # O MOL
325 1 4 0.000000 3.237000 7.476000 2.780000 # O MOL
326 1 3 0.000000 23.957001 5.130000 -11.463000 # N UNL
327 1 1 0.000000 22.429001 5.127000 -11.521000 # C UNL
328 1 1 0.000000 21.847000 4.520000 -12.797000 # C UNL
329 1 1 0.000000 20.316000 4.641000 -12.796000 # C UNL
330 1 1 0.000000 19.816000 6.088000 -12.757000 # C UNL
331 1 1 0.000000 20.337000 6.942000 -13.917000 # C UNL
332 1 1 0.000000 19.879999 6.421000 -15.283000 # C UNL
333 1 1 0.000000 18.358000 6.451000 -15.449000 # C UNL
334 1 1 0.000000 17.777000 7.863000 -15.335000 # C UNL
335 1 1 0.000000 24.521999 3.728000 -11.635000 # C UNL
336 1 1 0.000000 24.354000 5.655000 -10.079000 # C UNL
337 1 1 0.000000 24.549000 6.062000 -12.515000 # C UNL
338 1 1 0.000000 18.316999 8.811000 -16.413000 # C UNL
339 1 1 0.000000 17.941999 8.377000 -17.836000 # C UNL
340 1 1 0.000000 16.430000 8.270000 -18.065001 # C UNL
341 1 1 0.000000 15.747000 9.614000 -17.829000 # C UNL
342 1 1 0.000000 14.234000 9.535000 -17.969999 # C UNL
343 1 1 0.000000 13.634000 10.926000 -17.764999 # C UNL
344 1 1 0.000000 12.118000 10.908000 -17.908001 # C UNL
345 1 1 0.000000 11.541000 12.304000 -17.728001 # C UNL
346 1 2 0.000000 22.129000 6.173000 -11.398000 # H UNL
347 1 2 0.000000 22.072001 4.564000 -10.650000 # H UNL
348 1 2 0.000000 22.103001 3.456000 -12.865000 # H UNL
349 1 2 0.000000 22.261000 4.991000 -13.692000 # H UNL
350 1 2 0.000000 19.912001 4.101000 -11.935000 # H UNL
351 1 2 0.000000 19.923000 4.129000 -13.683000 # H UNL
352 1 2 0.000000 20.097000 6.563000 -11.811000 # H UNL
353 1 2 0.000000 18.719999 6.082000 -12.746000 # H UNL
354 1 2 0.000000 21.430000 6.992000 -13.897000 # H UNL
355 1 2 0.000000 20.013000 7.978000 -13.771000 # H UNL
356 1 2 0.000000 20.363001 7.011000 -16.070000 # H UNL
357 1 2 0.000000 20.238001 5.399000 -15.443000 # H UNL
358 1 2 0.000000 18.094999 6.007000 -16.414000 # H UNL
359 1 2 0.000000 17.879000 5.807000 -14.703000 # H UNL
360 1 2 0.000000 16.684999 7.808000 -15.379000 # H UNL
361 1 2 0.000000 17.990999 8.287000 -14.348000 # H UNL
362 1 2 0.000000 25.580000 3.747000 -11.361000 # H UNL
363 1 2 0.000000 23.969000 3.049000 -10.980000 # H UNL
364 1 2 0.000000 24.415001 3.430000 -12.681000 # H UNL
365 1 2 0.000000 25.444000 5.683000 -10.013000 # H UNL
366 1 2 0.000000 23.936001 6.663000 -9.961000 # H UNL
367 1 2 0.000000 23.947001 4.979000 -9.317000 # H UNL
368 1 2 0.000000 24.340000 5.660000 -13.508000 # H UNL
369 1 2 0.000000 24.093000 7.051000 -12.397000 # H UNL
370 1 2 0.000000 25.628000 6.117000 -12.356000 # H UNL
371 1 2 0.000000 17.952999 9.824000 -16.211000 # H UNL
372 1 2 0.000000 19.406000 8.895000 -16.341999 # H UNL
373 1 2 0.000000 18.365999 9.097000 -18.546000 # H UNL
374 1 2 0.000000 18.408001 7.414000 -18.073000 # H UNL
375 1 2 0.000000 16.247999 7.937000 -19.093000 # H UNL
376 1 2 0.000000 15.995000 7.501000 -17.417999 # H UNL
377 1 2 0.000000 15.964000 9.984000 -16.822001 # H UNL
378 1 2 0.000000 16.153000 10.349000 -18.535999 # H UNL
379 1 2 0.000000 13.968000 9.148000 -18.959999 # H UNL
380 1 2 0.000000 13.829000 8.841000 -17.223000 # H UNL
381 1 2 0.000000 13.906000 11.301000 -16.768999 # H UNL
382 1 2 0.000000 14.066000 11.620000 -18.496000 # H UNL
383 1 2 0.000000 11.843000 10.525000 -18.896000 # H UNL
384 1 2 0.000000 11.681000 10.233000 -17.162001 # H UNL
385 1 2 0.000000 11.949000 12.996000 -18.469000 # H UNL
386 1 2 0.000000 10.453000 12.280000 -17.847000 # H UNL
387 1 2 0.000000 11.764000 12.693000 -16.730000 # H UNL
388 2 3 0.000000 -25.172001 5.643000 5.598000 # N UNL
389 2 1 0.000000 -24.100000 4.873000 6.372000 # C UNL
390 2 1 0.000000 -22.697001 4.971000 5.775000 # C UNL
391 2 1 0.000000 -21.715000 4.101000 6.573000 # C UNL
392 2 1 0.000000 -22.070000 2.611000 6.563000 # C UNL
393 2 1 0.000000 -22.159000 2.018000 5.153000 # C UNL
394 2 1 0.000000 -20.829000 2.096000 4.396000 # C UNL
395 2 1 0.000000 -19.716000 1.291000 5.073000 # C UNL
396 2 1 0.000000 -20.042000 -0.202000 5.174000 # C UNL
397 2 1 0.000000 -24.806000 7.112000 5.455000 # C UNL
398 2 1 0.000000 -26.472000 5.533000 6.400000 # C UNL
399 2 1 0.000000 -25.406000 5.028000 4.222000 # C UNL
400 2 1 0.000000 -20.233000 -0.858000 3.801000 # C UNL
401 2 1 0.000000 -18.966999 -0.820000 2.936000 # C UNL
402 2 1 0.000000 -17.761000 -1.510000 3.584000 # C UNL
403 2 1 0.000000 -18.056000 -2.982000 3.855000 # C UNL
404 2 1 0.000000 -16.913000 -3.686000 4.570000 # C UNL
405 2 1 0.000000 -17.267000 -5.161000 4.761000 # C UNL
406 2 1 0.000000 -16.150000 -5.920000 5.463000 # C UNL
407 2 1 0.000000 -16.507999 -7.390000 5.620000 # C UNL
408 2 2 0.000000 -24.452000 3.837000 6.409000 # H UNL
409 2 2 0.000000 -24.093000 5.269000 7.395000 # H UNL
410 2 2 0.000000 -22.337999 6.007000 5.811000 # H UNL
411 2 2 0.000000 -22.686001 4.682000 4.722000 # H UNL
412 2 2 0.000000 -21.681000 4.451000 7.608000 # H UNL
413 2 2 0.000000 -20.705000 4.252000 6.171000 # H UNL
414 2 2 0.000000 -23.018999 2.441000 7.080000 # H UNL
415 2 2 0.000000 -21.330000 2.068000 7.161000 # H UNL
416 2 2 0.000000 -22.934999 2.525000 4.570000 # H UNL
417 2 2 0.000000 -22.502001 0.981000 5.222000 # H UNL
418 2 2 0.000000 -20.982000 1.749000 3.368000 # H UNL
419 2 2 0.000000 -20.506001 3.137000 4.294000 # H UNL
420 2 2 0.000000 -18.781000 1.440000 4.523000 # H UNL
421 2 2 0.000000 -19.517000 1.681000 6.077000 # H UNL
422 2 2 0.000000 -19.250000 -0.706000 5.737000 # H UNL
423 2 2 0.000000 -20.945999 -0.358000 5.773000 # H UNL
424 2 2 0.000000 -25.688999 7.655000 5.106000 # H UNL
425 2 2 0.000000 -24.489000 7.486000 6.433000 # H UNL
426 2 2 0.000000 -23.999001 7.207000 4.724000 # H UNL
427 2 2 0.000000 -27.263000 6.062000 5.862000 # H UNL
428 2 2 0.000000 -26.724001 4.469000 6.504000 # H UNL
429 2 2 0.000000 -26.316999 5.989000 7.385000 # H UNL
430 2 2 0.000000 -24.511000 5.167000 3.610000 # H UNL
431 2 2 0.000000 -25.622999 3.963000 4.349000 # H UNL
432 2 2 0.000000 -26.254999 5.539000 3.759000 # H UNL
433 2 2 0.000000 -20.570999 -1.889000 3.944000 # H UNL
434 2 2 0.000000 -21.051001 -0.377000 3.256000 # H UNL
435 2 2 0.000000 -19.184000 -1.300000 1.975000 # H UNL
436 2 2 0.000000 -18.701000 0.216000 2.700000 # H UNL
437 2 2 0.000000 -16.898001 -1.420000 2.916000 # H UNL
438 2 2 0.000000 -17.478001 -0.999000 4.512000 # H UNL
439 2 2 0.000000 -18.948999 -3.087000 4.480000 # H UNL
440 2 2 0.000000 -18.270000 -3.483000 2.903000 # H UNL
441 2 2 0.000000 -15.989000 -3.589000 3.990000 # H UNL
442 2 2 0.000000 -16.740999 -3.215000 5.547000 # H UNL
443 2 2 0.000000 -18.194000 -5.244000 5.346000 # H UNL
444 2 2 0.000000 -17.466000 -5.616000 3.783000 # H UNL
445 2 2 0.000000 -15.222000 -5.830000 4.888000 # H UNL
446 2 2 0.000000 -15.965000 -5.481000 6.452000 # H UNL
447 2 2 0.000000 -16.684999 -7.856000 4.647000 # H UNL
448 2 2 0.000000 -15.691000 -7.926000 6.113000 # H UNL
449 2 2 0.000000 -17.409000 -7.509000 6.230000 # H UNL
450 3 3 0.000000 12.468000 -12.656000 0.230000 # N UNL
451 3 1 0.000000 13.977000 -12.717000 0.471000 # C UNL
452 3 1 0.000000 14.379000 -12.780000 1.944000 # C UNL
453 3 1 0.000000 15.908000 -12.753000 2.082000 # C UNL
454 3 1 0.000000 16.551001 -11.478000 1.528000 # C UNL
455 3 1 0.000000 16.014999 -10.198000 2.176000 # C UNL
456 3 1 0.000000 16.294001 -10.139000 3.681000 # C UNL
457 3 1 0.000000 17.790001 -10.126000 4.006000 # C UNL
458 3 1 0.000000 18.516001 -8.917000 3.408000 # C UNL
459 3 1 0.000000 11.754000 -13.832000 0.878000 # C UNL
460 3 1 0.000000 12.251000 -12.721000 -1.285000 # C UNL
461 3 1 0.000000 11.880000 -11.344000 0.740000 # C UNL
462 3 1 0.000000 17.979000 -7.584000 3.942000 # C UNL
463 3 1 0.000000 18.180000 -7.418000 5.454000 # C UNL
464 3 1 0.000000 19.646999 -7.503000 5.890000 # C UNL
465 3 1 0.000000 20.478001 -6.412000 5.221000 # C UNL
466 3 1 0.000000 21.957001 -6.509000 5.566000 # C UNL
467 3 1 0.000000 22.708000 -5.358000 4.896000 # C UNL
468 3 1 0.000000 24.195999 -5.398000 5.218000 # C UNL
469 3 1 0.000000 24.923000 -4.231000 4.566000 # C UNL
470 3 2 0.000000 14.389000 -11.831000 -0.023000 # H UNL
471 3 2 0.000000 14.353000 -13.605000 -0.051000 # H UNL
472 3 2 0.000000 14.014000 -13.708000 2.400000 # H UNL
473 3 2 0.000000 13.935000 -11.963000 2.518000 # H UNL
474 3 2 0.000000 16.333000 -13.619000 1.565000 # H UNL
475 3 2 0.000000 16.167999 -12.879000 3.140000 # H UNL
476 3 2 0.000000 16.405001 -11.417000 0.444000 # H UNL
477 3 2 0.000000 17.636999 -11.547000 1.654000 # H UNL
478 3 2 0.000000 14.939000 -10.101000 2.004000 # H UNL
479 3 2 0.000000 16.452000 -9.331000 1.669000 # H UNL
480 3 2 0.000000 15.803000 -9.253000 4.101000 # H UNL
481 3 2 0.000000 15.823000 -10.985000 4.192000 # H UNL
482 3 2 0.000000 17.921000 -10.150000 5.093000 # H UNL
483 3 2 0.000000 18.268000 -11.043000 3.645000 # H UNL
484 3 2 0.000000 19.589001 -9.009000 3.604000 # H UNL
485 3 2 0.000000 18.434999 -8.923000 2.316000 # H UNL
486 3 2 0.000000 10.732000 -13.870000 0.493000 # H UNL
487 3 2 0.000000 12.294000 -14.748000 0.623000 # H UNL
488 3 2 0.000000 11.737000 -13.682000 1.961000 # H UNL
489 3 2 0.000000 11.179000 -12.664000 -1.490000 # H UNL
490 3 2 0.000000 12.776000 -11.873000 -1.745000 # H UNL
491 3 2 0.000000 12.656000 -13.671000 -1.658000 # H UNL
492 3 2 0.000000 11.958000 -11.316000 1.829000 # H UNL
493 3 2 0.000000 12.440000 -10.516000 0.293000 # H UNL
494 3 2 0.000000 10.830000 -11.301000 0.442000 # H UNL
495 3 2 0.000000 18.458000 -6.764000 3.398000 # H UNL
496 3 2 0.000000 16.914000 -7.478000 3.711000 # H UNL
497 3 2 0.000000 17.767000 -6.449000 5.759000 # H UNL
498 3 2 0.000000 17.601000 -8.173000 5.998000 # H UNL
499 3 2 0.000000 19.702000 -7.397000 6.979000 # H UNL
500 3 2 0.000000 20.059999 -8.492000 5.663000 # H UNL
501 3 2 0.000000 20.389999 -6.475000 4.131000 # H UNL
502 3 2 0.000000 20.084999 -5.433000 5.519000 # H UNL
503 3 2 0.000000 22.093000 -6.472000 6.652000 # H UNL
504 3 2 0.000000 22.357000 -7.469000 5.215000 # H UNL
505 3 2 0.000000 22.565001 -5.408000 3.808000 # H UNL
506 3 2 0.000000 22.283001 -4.404000 5.230000 # H UNL
507 3 2 0.000000 24.341999 -5.358000 6.303000 # H UNL
508 3 2 0.000000 24.629000 -6.341000 4.864000 # H UNL
509 3 2 0.000000 24.518999 -3.276000 4.913000 # H UNL
510 3 2 0.000000 25.987000 -4.263000 4.817000 # H UNL
511 3 2 0.000000 24.829000 -4.272000 3.477000 # H UNL
512 4 3 0.000000 -13.033000 16.098000 15.003000 # N UNL
513 4 1 0.000000 -12.123000 14.955000 14.550000 # C UNL
514 4 1 0.000000 -12.111000 13.748000 15.489000 # C UNL
515 4 1 0.000000 -11.109000 12.696000 14.993000 # C UNL
516 4 1 0.000000 -9.664000 13.202000 14.947000 # C UNL
517 4 1 0.000000 -9.155000 13.711000 16.299000 # C UNL
518 4 1 0.000000 -9.139000 12.618000 17.372000 # C UNL
519 4 1 0.000000 -8.194000 11.464000 17.027000 # C UNL
520 4 1 0.000000 -6.737000 11.914000 16.879999 # C UNL
521 4 1 0.000000 -14.464000 15.623000 15.200000 # C UNL
522 4 1 0.000000 -13.012000 17.155001 13.894000 # C UNL
523 4 1 0.000000 -12.516000 16.740999 16.285000 # C UNL
524 4 1 0.000000 -6.175000 12.520000 18.172001 # C UNL
525 4 1 0.000000 -6.131000 11.520000 19.334999 # C UNL
526 4 1 0.000000 -5.294000 10.271000 19.037001 # C UNL
527 4 1 0.000000 -3.846000 10.646000 18.733999 # C UNL
528 4 1 0.000000 -2.996000 9.442000 18.357000 # C UNL
529 4 1 0.000000 -1.556000 9.895000 18.115999 # C UNL
530 4 1 0.000000 -0.655000 8.724000 17.745001 # C UNL
531 4 1 0.000000 0.778000 9.189000 17.535999 # C UNL
532 4 2 0.000000 -11.126000 15.396000 14.449000 # H UNL
533 4 2 0.000000 -12.462000 14.643000 13.556000 # H UNL
534 4 2 0.000000 -13.103000 13.282000 15.523000 # H UNL